ITEM: TIMESTEP
0
ITEM: NUMBER OF ATOMS
15702
ITEM: BOX BOUNDS ff ff pp
0.0000000000000000e+00 4.0010000000000003e+00
0.0000000000000000e+00 8.0009999999999994e+00
-1.0000000000000000e-03 1.0000000000000000e-03
ITEM: ATOMS id type xs ys zs mass c_rho_peratom c_e_peratom fx fy v_tempe v_tempera 
1 2 0 0 0.5 0.1 1000 41670 0 0 349.393 400 
2 2 0.00176733 0.000883773 0.5 0.1 1000 41670 0 0 349.393 400 
3 2 0.00353465 0 0.5 0.1 1000 41670 0 0 349.393 400 
284 2 0 0.00176755 0.5 0.1 1000 41670 0 0 349.393 400 
286 2 0.00353465 0.00176755 0.5 0.1 1000 41670 22.1189 22.1189 349.393 400 
4 2 0.00530198 0.000883773 0.5 0.1 1000 41670 6.33512 16.5314 349.393 400 
5 2 0.0070693 0 0.5 0.1 1000 41670 0 0 349.393 400 
6 2 0.00883663 0.000883773 0.5 0.1 1000 41670 -3.90372 25.6058 349.393 400 
287 2 0.0070693 0.00176755 0.5 0.1 1000 41670 11.124 78.3635 349.393 400 
7 2 0.010604 0 0.5 0.1 1000 41670 0 0 349.393 400 
8 2 0.0123713 0.000883773 0.5 0.1 1000 41670 0.333867 15.2335 349.393 400 
9 2 0.0141386 0 0.5 0.1 1000 41670 0 0 349.393 400 
288 2 0.010604 0.00176755 0.5 0.1 1000 41670 -13.8935 71.3001 349.393 400 
289 2 0.0141386 0.00176755 0.5 0.1 1000 41670 0.861551 53.2582 349.393 400 
10 2 0.0159059 0.000883773 0.5 0.1 1000 41670 1.25743 15.1148 349.393 400 
11 2 0.0176733 0 0.5 0.1 1000 41670 0 0 349.393 400 
12 2 0.0194406 0.000883773 0.5 0.1 1000 41670 -0.841462 15.1458 349.393 400 
290 2 0.0176733 0.00176755 0.5 0.1 1000 41670 0.401758 51.0631 349.393 400 
13 2 0.0212079 0 0.5 0.1 1000 41670 0 0 349.393 400 
14 2 0.0229752 0.000883773 0.5 0.1 1000 41670 -1.09617 15.1081 349.393 400 
291 2 0.0212079 0.00176755 0.5 0.1 1000 41670 -1.42807 52.4381 349.393 400 
15 2 0.0247426 0 0.5 0.1 1000 41670 0 0 349.393 400 
16 2 0.0265099 0.000883773 0.5 0.1 1000 41670 1.51805 15.0695 349.393 400 
17 2 0.0282772 0 0.5 0.1 1000 41670 0 0 349.393 400 
292 2 0.0247426 0.00176755 0.5 0.1 1000 41670 0.204687 53.9959 349.393 400 
293 2 0.0282772 0.00176755 0.5 0.1 1000 41670 1.4575 51.5221 349.393 400 
18 2 0.0300445 0.000883773 0.5 0.1 1000 41670 0.0830997 15.1674 349.393 400 
19 2 0.0318119 0 0.5 0.1 1000 41670 0 0 349.393 400 
20 2 0.0335792 0.000883773 0.5 0.1 1000 41670 -1.52504 15.0734 349.393 400 
294 2 0.0318119 0.00176755 0.5 0.1 1000 41670 -1.33649 51.3982 349.393 400 
21 2 0.0353465 0 0.5 0.1 1000 41670 0 0 349.393 400 
22 2 0.0371138 0.000883773 0.5 0.1 1000 41670 0.916559 15.1343 349.393 400 
23 2 0.0388812 0 0.5 0.1 1000 41670 0 0 349.393 400 
295 2 0.0353465 0.00176755 0.5 0.1 1000 41670 -0.295995 53.9279 349.393 400 
296 2 0.0388812 0.00176755 0.5 0.1 1000 41670 1.25942 52.7 349.393 400 
24 2 0.0406485 0.000883773 0.5 0.1 1000 41670 0.977714 15.1376 349.393 400 
25 2 0.0424158 0 0.5 0.1 1000 41670 0 0 349.393 400 
297 2 0.0424158 0.00176755 0.5 0.1 1000 41670 -0.16772 51.0436 349.393 400 
26 2 0.0441831 0.000883773 0.5 0.1 1000 41670 -1.151 15.1246 349.393 400 
27 2 0.0459505 0 0.5 0.1 1000 41670 0 0 349.393 400 
28 2 0.0477178 0.000883773 0.5 0.1 1000 41670 -0.600883 15.1867 349.393 400 
298 2 0.0459505 0.00176755 0.5 0.1 1000 41670 -1.0152 53.0458 349.393 400 
29 2 0.0494851 0 0.5 0.1 1000 41670 0 0 349.393 400 
30 2 0.0512524 0.000883773 0.5 0.1 1000 41670 1.49502 15.0828 349.393 400 
31 2 0.0530198 0 0.5 0.1 1000 41670 0 0 349.393 400 
299 2 0.0494851 0.00176755 0.5 0.1 1000 41670 0.436876 53.791 349.393 400 
300 2 0.0530198 0.00176755 0.5 0.1 1000 41670 1.11319 51.2566 349.393 400 
32 2 0.0547871 0.000883773 0.5 0.1 1000 41670 -0.316216 15.1646 349.393 400 
33 2 0.0565544 0 0.5 0.1 1000 41670 0 0 349.393 400 
34 2 0.0583217 0.000883773 0.5 0.1 1000 41670 -1.46449 15.0692 349.393 400 
301 2 0.0565544 0.00176755 0.5 0.1 1000 41670 -1.56502 51.7334 349.393 400 
35 2 0.0600891 0 0.5 0.1 1000 41670 0 0 349.393 400 
36 2 0.0618564 0.000883773 0.5 0.1 1000 41670 1.29261 15.0837 349.393 400 
302 2 0.0600891 0.00176755 0.5 0.1 1000 41670 -0.0831915 54.0521 349.393 400 
37 2 0.0636237 0 0.5 0.1 1000 41670 0 0 349.393 400 
38 2 0.065391 0.000883773 0.5 0.1 1000 41670 0.633174 15.1555 349.393 400 
39 2 0.0671584 0 0.5 0.1 1000 41670 0 0 349.393 400 
303 2 0.0636237 0.00176755 0.5 0.1 1000 41670 1.56216 52.1106 349.393 400 
304 2 0.0671584 0.00176755 0.5 0.1 1000 41670 -0.718229 51.119 349.393 400 
40 2 0.0689257 0.000883773 0.5 0.1 1000 41670 -1.38141 15.1008 349.393 400 
41 2 0.070693 0 0.5 0.1 1000 41670 0 0 349.393 400 
42 2 0.0724603 0.000883773 0.5 0.1 1000 41670 0.0573691 15.2565 349.393 400 
305 2 0.070693 0.00176755 0.5 0.1 1000 41670 -0.668528 53.5144 349.393 400 
43 2 0.0742277 0 0.5 0.1 1000 41670 0 0 349.393 400 
44 2 0.075995 0.000883773 0.5 0.1 1000 41670 1.34856 15.1049 349.393 400 
45 2 0.0777623 0 0.5 0.1 1000 41670 0 0 349.393 400 
306 2 0.0742277 0.00176755 0.5 0.1 1000 41670 0.722305 53.4446 349.393 400 
307 2 0.0777623 0.00176755 0.5 0.1 1000 41670 0.627939 51.0992 349.393 400 
46 2 0.0795296 0.000883773 0.5 0.1 1000 41670 -0.695831 15.153 349.393 400 
47 2 0.081297 0 0.5 0.1 1000 41670 0 0 349.393 400 
308 2 0.081297 0.00176755 0.5 0.1 1000 41670 -1.53522 52.2011 349.393 400 
48 2 0.0830643 0.000883773 0.5 0.1 1000 41670 -1.2418 15.0895 349.393 400 
49 2 0.0848316 0 0.5 0.1 1000 41670 0 0 349.393 400 
50 2 0.0865989 0.000883773 0.5 0.1 1000 41670 1.48572 15.0685 349.393 400 
309 2 0.0848316 0.00176755 0.5 0.1 1000 41670 0.118118 54.0405 349.393 400 
51 2 0.0883663 0 0.5 0.1 1000 41670 0 0 349.393 400 
52 2 0.0901336 0.000883773 0.5 0.1 1000 41670 0.248415 15.1657 349.393 400 
53 2 0.0919009 0 0.5 0.1 1000 41670 0 0 349.393 400 
310 2 0.0883663 0.00176755 0.5 0.1 1000 41670 1.54199 51.667 349.393 400 
311 2 0.0919009 0.00176755 0.5 0.1 1000 41670 -1.18422 51.2941 349.393 400 
54 2 0.0936682 0.000883773 0.5 0.1 1000 41670 -1.50842 15.0797 349.393 400 
55 2 0.0954356 0 0.5 0.1 1000 41670 0 0 349.393 400 
56 2 0.0972029 0.000883773 0.5 0.1 1000 41670 0.701091 15.1694 349.393 400 
312 2 0.0954356 0.00176755 0.5 0.1 1000 41670 -0.393934 53.8361 349.393 400 
57 2 0.0989702 0 0.5 0.1 1000 41670 0 0 349.393 400 
58 2 0.100738 0.000883773 0.5 0.1 1000 41670 1.10284 15.1286 349.393 400 
313 2 0.0989702 0.00176755 0.5 0.1 1000 41670 1.08335 52.9501 349.393 400 
59 2 0.102505 0 0.5 0.1 1000 41670 0 0 349.393 400 
60 2 0.104272 0.000883773 0.5 0.1 1000 41670 -1.03099 15.134 349.393 400 
61 2 0.10604 0 0.5 0.1 1000 41670 0 0 349.393 400 
314 2 0.102505 0.00176755 0.5 0.1 1000 41670 0.0695646 51.0402 349.393 400 
315 2 0.10604 0.00176755 0.5 0.1 1000 41670 -1.18447 52.8069 349.393 400 
62 2 0.107807 0.000883773 0.5 0.1 1000 41670 -0.831769 15.1477 349.393 400 
63 2 0.109574 0 0.5 0.1 1000 41670 0 0 349.393 400 
64 2 0.111341 0.000883773 0.5 0.1 1000 41670 1.52092 15.0758 349.393 400 
316 2 0.109574 0.00176755 0.5 0.1 1000 41670 0.335653 53.8928 349.393 400 
65 2 0.113109 0 0.5 0.1 1000 41670 0 0 349.393 400 
66 2 0.114876 0.000883773 0.5 0.1 1000 41670 -0.151784 15.1669 349.393 400 
67 2 0.116643 0 0.5 0.1 1000 41670 0 0 349.393 400 
317 2 0.113109 0.00176755 0.5 0.1 1000 41670 1.27692 51.3528 349.393 400 
318 2 0.116643 0.00176755 0.5 0.1 1000 41670 -1.49723 51.5795 349.393 400 
68 2 0.118411 0.000883773 0.5 0.1 1000 41670 -1.50783 15.0687 349.393 400 
69 2 0.120178 0 0.5 0.1 1000 41670 0 0 349.393 400 
70 2 0.121945 0.000883773 0.5 0.1 1000 41670 1.16051 15.0995 349.393 400 
319 2 0.120178 0.00176755 0.5 0.1 1000 41670 -0.168364 54.0172 349.393 400 
71 2 0.123713 0 0.5 0.1 1000 41670 0 0 349.393 400 
320 2 0.123713 0.00176755 0.5 0.1 1000 41670 1.47993 52.3367 349.393 400 
72 2 0.12548 0.000883773 0.5 0.1 1000 41670 0.782178 15.1489 349.393 400 
73 2 0.127247 0 0.5 0.1 1000 41670 0 0 349.393 400 
74 2 0.129015 0.000883773 0.5 0.1 1000 41670 -1.29713 15.1107 349.393 400 
75 2 0.130782 0 0.5 0.1 1000 41670 0 0 349.393 400 
321 2 0.127247 0.00176755 0.5 0.1 1000 41670 -0.496663 51.076 349.393 400 
322 2 0.130782 0.00176755 0.5 0.1 1000 41670 -0.802202 53.3385 349.393 400 
76 2 0.132549 0.000883773 0.5 0.1 1000 41670 -0.219496 15.247 349.393 400 
77 2 0.134317 0 0.5 0.1 1000 41670 0 0 349.393 400 
78 2 0.136084 0.000883773 0.5 0.1 1000 41670 1.42265 15.0952 349.393 400 
323 2 0.134317 0.00176755 0.5 0.1 1000 41670 0.596089 53.6057 349.393 400 
79 2 0.137851 0 0.5 0.1 1000 41670 0 0 349.393 400 
80 2 0.139619 0.000883773 0.5 0.1 1000 41670 -0.54257 15.1588 349.393 400 
81 2 0.141386 0 0.5 0.1 1000 41670 0 0 349.393 400 
324 2 0.137851 0.00176755 0.5 0.1 1000 41670 0.841604 51.152 349.393 400 
325 2 0.141386 0.00176755 0.5 0.1 1000 41670 -1.58402 51.9901 349.393 400 
82 2 0.143153 0.000883773 0.5 0.1 1000 41670 -1.35531 15.0773 349.393 400 
83 2 0.144921 0 0.5 0.1 1000 41670 0 0 349.393 400 
326 2 0.144921 0.00176755 0.5 0.1 1000 41670 0.0343455 54.0617 349.393 400 
84 2 0.146688 0.000883773 0.5 0.1 1000 41670 1.4263 15.0714 349.393 400 
85 2 0.148455 0 0.5 0.1 1000 41670 0 0 349.393 400 
86 2 0.150223 0.000883773 0.5 0.1 1000 41670 0.411081 15.1626 349.393 400 
327 2 0.148455 0.00176755 0.5 0.1 1000 41670 1.58454 51.834 349.393 400 
87 2 0.15199 0 0.5 0.1 1000 41670 0 0 349.393 400 
88 2 0.153757 0.000883773 0.5 0.1 1000 41670 -1.46991 15.0877 349.393 400 
89 2 0.155525 0 0.5 0.1 1000 41670 0 0 349.393 400 
328 2 0.15199 0.00176755 0.5 0.1 1000 41670 -1.00575 51.2089 349.393 400 
329 2 0.155525 0.00176755 0.5 0.1 1000 41670 -0.500322 53.7202 349.393 400 
90 2 0.157292 0.000883773 0.5 0.1 1000 41670 0.447823 15.2144 349.393 400 
91 2 0.159059 0 0.5 0.1 1000 41670 0 0 349.393 400 
92 2 0.160827 0.000883773 0.5 0.1 1000 41670 1.21511 15.1189 349.393 400 
330 2 0.159059 0.00176755 0.5 0.1 1000 41670 0.923374 53.1734 349.393 400 
93 2 0.162594 0 0.5 0.1 1000 41670 0 0 349.393 400 
94 2 0.164361 0.000883773 0.5 0.1 1000 41670 -0.899137 15.1426 349.393 400 
331 2 0.162594 0.00176755 0.5 0.1 1000 41670 0.305505 51.0531 349.393 400 
95 2 0.166129 0 0.5 0.1 1000 41670 0 0 349.393 400 
332 2 0.166129 0.00176755 0.5 0.1 1000 41670 -1.36522 52.5442 349.393 400 
96 2 0.167896 0.000883773 0.5 0.1 1000 41670 -1.026 15.118 349.393 400 
97 2 0.169663 0 0.5 0.1 1000 41670 0 0 349.393 400 
333 2 0.169663 0.00176755 0.5 0.1 1000 41670 0.241823 53.9706 349.393 400 
98 2 0.171431 0.000883773 0.5 0.1 1000 41670 1.52392 15.0708 349.393 400 
99 2 0.173198 0 0.5 0.1 1000 41670 0 0 349.393 400 
100 2 0.174965 0.000883773 0.5 0.1 1000 41670 0.0142638 15.1675 349.393 400 
334 2 0.173198 0.00176755 0.5 0.1 1000 41670 1.4115 51.4683 349.393 400 
101 2 0.176733 0 0.5 0.1 1000 41670 0 0 349.393 400 
102 2 0.1785 0.000883773 0.5 0.1 1000 41670 -1.52511 15.0715 349.393 400 
103 2 0.180267 0 0.5 0.1 1000 41670 0 0 349.393 400 
335 2 0.176733 0.00176755 0.5 0.1 1000 41670 -1.39071 51.4471 349.393 400 
336 2 0.180267 0.00176755 0.5 0.1 1000 41670 -0.257476 53.9589 349.393 400 
104 2 0.182034 0.000883773 0.5 0.1 1000 41670 0.995196 15.1225 349.393 400 
105 2 0.183802 0 0.5 0.1 1000 41670 0 0 349.393 400 
337 2 0.183802 0.00176755 0.5 0.1 1000 41670 1.33592 52.5893 349.393 400 
106 2 0.185569 0.000883773 0.5 0.1 1000 41670 0.922527 15.1412 349.393 400 
107 2 0.187336 0 0.5 0.1 1000 41670 0 0 349.393 400 
108 2 0.189104 0.000883773 0.5 0.1 1000 41670 -1.19683 15.1206 349.393 400 
338 2 0.187336 0.00176755 0.5 0.1 1000 41670 -0.265318 51.0497 349.393 400 
109 2 0.190871 0 0.5 0.1 1000 41670 0 0 349.393 400 
110 2 0.192638 0.000883773 0.5 0.1 1000 41670 -0.494049 15.2059 349.393 400 
111 2 0.194406 0 0.5 0.1 1000 41670 0 0 349.393 400 
339 2 0.190871 0.00176755 0.5 0.1 1000 41670 -0.949727 53.137 349.393 400 
340 2 0.194406 0.00176755 0.5 0.1 1000 41670 0.481392 53.7418 349.393 400 
112 2 0.196173 0.000883773 0.5 0.1 1000 41670 1.478 15.0862 349.393 400 
113 2 0.19794 0 0.5 0.1 1000 41670 0 0 349.393 400 
114 2 0.199708 0.000883773 0.5 0.1 1000 41670 -0.383437 15.1632 349.393 400 
341 2 0.19794 0.00176755 0.5 0.1 1000 41670 1.03802 51.2223 349.393 400 
115 2 0.201475 0 0.5 0.1 1000 41670 0 0 349.393 400 
116 2 0.203242 0.000883773 0.5 0.1 1000 41670 -1.43849 15.0706 349.393 400 
342 2 0.201475 0.00176755 0.5 0.1 1000 41670 -1.58046 51.8037 349.393 400 
117 2 0.20501 0 0.5 0.1 1000 41670 0 0 349.393 400 
118 2 0.206777 0.000883773 0.5 0.1 1000 41670 1.33804 15.079 349.393 400 
343 2 0.20501 0.00176755 0.5 0.1 1000 41670 -0.0486051 54.0597 349.393 400 
119 2 0.208544 0 0.5 0.1 1000 41670 0 0 349.393 400 
344 2 0.208544 0.00176755 0.5 0.1 1000 41670 1.57953 52.0245 349.393 400 
120 2 0.210312 0.000883773 0.5 0.1 1000 41670 0.569332 15.1579 349.393 400 
121 2 0.212079 0 0.5 0.1 1000 41670 0 0 349.393 400 
122 2 0.213846 0.000883773 0.5 0.1 1000 41670 -1.41122 15.0968 349.393 400 
345 2 0.212079 0.00176755 0.5 0.1 1000 41670 -0.806038 51.1417 349.393 400 
123 2 0.215614 0 0.5 0.1 1000 41670 0 0 349.393 400 
124 2 0.217381 0.000883773 0.5 0.1 1000 41670 0.172044 15.2509 349.393 400 
125 2 0.219148 0 0.5 0.1 1000 41670 0 0 349.393 400 
346 2 0.215614 0.00176755 0.5 0.1 1000 41670 -0.616882 53.5798 349.393 400 
347 2 0.219148 0.00176755 0.5 0.1 1000 41670 0.778321 53.3705 349.393 400 
126 2 0.220916 0.000883773 0.5 0.1 1000 41670 1.31278 15.109 349.393 400 
127 2 0.222683 0 0.5 0.1 1000 41670 0 0 349.393 400 
348 2 0.222683 0.00176755 0.5 0.1 1000 41670 0.535502 51.0822 349.393 400 
128 2 0.22445 0.000883773 0.5 0.1 1000 41670 -0.757179 15.1502 349.393 400 
129 2 0.226218 0 0.5 0.1 1000 41670 0 0 349.393 400 
130 2 0.227985 0.000883773 0.5 0.1 1000 41670 -1.18548 15.0964 349.393 400 
349 2 0.226218 0.00176755 0.5 0.1 1000 41670 -1.49827 52.296 349.393 400 
131 2 0.229752 0 0.5 0.1 1000 41670 0 0 349.393 400 
132 2 0.23152 0.000883773 0.5 0.1 1000 41670 1.50229 15.0685 349.393 400 
133 2 0.233287 0 0.5 0.1 1000 41670 0 0 349.393 400 
350 2 0.229752 0.00176755 0.5 0.1 1000 41670 0.153525 54.0248 349.393 400 
351 2 0.233287 0.00176755 0.5 0.1 1000 41670 1.51177 51.6043 349.393 400 
134 2 0.235054 0.000883773 0.5 0.1 1000 41670 0.18016 15.1666 349.393 400 
135 2 0.236822 0 0.5 0.1 1000 41670 0 0 349.393 400 
136 2 0.238589 0.000883773 0.5 0.1 1000 41670 -1.51806 15.0769 349.393 400 
352 2 0.236822 0.00176755 0.5 0.1 1000 41670 -1.25076 51.3349 349.393 400 
137 2 0.240356 0 0.5 0.1 1000 41670 0 0 349.393 400 
138 2 0.242124 0.000883773 0.5 0.1 1000 41670 0.794814 15.1537 349.393 400 
139 2 0.243891 0 0.5 0.1 1000 41670 0 0 349.393 400 
353 2 0.240356 0.00176755 0.5 0.1 1000 41670 -0.352444 53.877 349.393 400 
354 2 0.243891 0.00176755 0.5 0.1 1000 41670 3.08841 55.0109 349.393 400 
140 2 0.245658 0.000883773 0.5 0.1 1000 41670 1.51067 16.6077 349.393 400 
141 2 0.247426 0 0.5 0.1 1000 41670 0 0 349.393 400 
355 2 0.247426 0.00176755 0.5 0.1 1000 41670 -4.56082 54.3777 349.393 400 
142 2 0.249193 0.000883773 0.5 0.1 1000 41670 -3.84258 12.5497 349.393 400 
143 2 0.25096 0 0.5 0.1 1000 41670 0 0 349.393 400 
144 2 0.252727 0.000883773 0.5 0.1 1000 41670 0 0 349.393 400 
356 2 0.25096 0.00176755 0.5 0.1 1000 41670 -17.3276 24.1838 349.393 400 
145 2 0.254495 0 0.5 0.1 1000 41670 0 0 349.393 400 
146 2 0.256262 0.000883773 0.5 0.1 1000 41670 0 0 349.393 400 
147 2 0.258029 0 0.5 0.1 1000 41670 0 0 349.393 400 
357 2 0.254495 0.00176755 0.5 0.1 1000 41670 0 0 349.393 400 
358 2 0.258029 0.00176755 0.5 0.1 1000 41670 0 0 349.393 400 
148 2 0.259797 0.000883773 0.5 0.1 1000 41670 0 0 349.393 400 
149 2 0.261564 0 0.5 0.1 1000 41670 0 0 349.393 400 
150 2 0.263331 0.000883773 0.5 0.1 1000 41670 0 0 349.393 400 
359 2 0.261564 0.00176755 0.5 0.1 1000 41670 0 0 349.393 400 
151 2 0.265099 0 0.5 0.1 1000 41670 0 0 349.393 400 
152 2 0.266866 0.000883773 0.5 0.1 1000 41670 0 0 349.393 400 
360 2 0.265099 0.00176755 0.5 0.1 1000 41670 0 0 349.393 400 
153 2 0.268633 0 0.5 0.1 1000 41670 0 0 349.393 400 
154 2 0.270401 0.000883773 0.5 0.1 1000 41670 0 0 349.393 400 
155 2 0.272168 0 0.5 0.1 1000 41670 0 0 349.393 400 
361 2 0.268633 0.00176755 0.5 0.1 1000 41670 0 0 349.393 400 
362 2 0.272168 0.00176755 0.5 0.1 1000 41670 0 0 349.393 400 
156 2 0.273935 0.000883773 0.5 0.1 1000 41670 0 0 349.393 400 
157 2 0.275703 0 0.5 0.1 1000 41670 0 0 349.393 400 
158 2 0.27747 0.000883773 0.5 0.1 1000 41670 0 0 349.393 400 
363 2 0.275703 0.00176755 0.5 0.1 1000 41670 0 0 349.393 400 
159 2 0.279237 0 0.5 0.1 1000 41670 0 0 349.393 400 
160 2 0.281005 0.000883773 0.5 0.1 1000 41670 0 0 349.393 400 
161 2 0.282772 0 0.5 0.1 1000 41670 0 0 349.393 400 
364 2 0.279237 0.00176755 0.5 0.1 1000 41670 0 0 349.393 400 
365 2 0.282772 0.00176755 0.5 0.1 1000 41670 0 0 349.393 400 
162 2 0.284539 0.000883773 0.5 0.1 1000 41670 0 0 349.393 400 
163 2 0.286307 0 0.5 0.1 1000 41670 0 0 349.393 400 
366 2 0.286307 0.00176755 0.5 0.1 1000 41670 0 0 349.393 400 
164 2 0.288074 0.000883773 0.5 0.1 1000 41670 0 0 349.393 400 
165 2 0.289841 0 0.5 0.1 1000 41670 0 0 349.393 400 
166 2 0.291609 0.000883773 0.5 0.1 1000 41670 0 0 349.393 400 
367 2 0.289841 0.00176755 0.5 0.1 1000 41670 0 0 349.393 400 
167 2 0.293376 0 0.5 0.1 1000 41670 0 0 349.393 400 
168 2 0.295143 0.000883773 0.5 0.1 1000 41670 0 0 349.393 400 
169 2 0.296911 0 0.5 0.1 1000 41670 0 0 349.393 400 
368 2 0.293376 0.00176755 0.5 0.1 1000 41670 0 0 349.393 400 
369 2 0.296911 0.00176755 0.5 0.1 1000 41670 0 0 349.393 400 
170 2 0.298678 0.000883773 0.5 0.1 1000 41670 0 0 349.393 400 
171 2 0.300445 0 0.5 0.1 1000 41670 0 0 349.393 400 
172 2 0.302213 0.000883773 0.5 0.1 1000 41670 0 0 349.393 400 
370 2 0.300445 0.00176755 0.5 0.1 1000 41670 0 0 349.393 400 
173 2 0.30398 0 0.5 0.1 1000 41670 0 0 349.393 400 
174 2 0.305747 0.000883773 0.5 0.1 1000 41670 0 0 349.393 400 
371 2 0.30398 0.00176755 0.5 0.1 1000 41670 0 0 349.393 400 
175 2 0.307515 0 0.5 0.1 1000 41670 0 0 349.393 400 
176 2 0.309282 0.000883773 0.5 0.1 1000 41670 0 0 349.393 400 
177 2 0.311049 0 0.5 0.1 1000 41670 0 0 349.393 400 
372 2 0.307515 0.00176755 0.5 0.1 1000 41670 0 0 349.393 400 
373 2 0.311049 0.00176755 0.5 0.1 1000 41670 0 0 349.393 400 
178 2 0.312817 0.000883773 0.5 0.1 1000 41670 0 0 349.393 400 
179 2 0.314584 0 0.5 0.1 1000 41670 0 0 349.393 400 
180 2 0.316351 0.000883773 0.5 0.1 1000 41670 0 0 349.393 400 
374 2 0.314584 0.00176755 0.5 0.1 1000 41670 0 0 349.393 400 
181 2 0.318119 0 0.5 0.1 1000 41670 0 0 349.393 400 
182 2 0.319886 0.000883773 0.5 0.1 1000 41670 0 0 349.393 400 
183 2 0.321653 0 0.5 0.1 1000 41670 0 0 349.393 400 
375 2 0.318119 0.00176755 0.5 0.1 1000 41670 0 0 349.393 400 
376 2 0.321653 0.00176755 0.5 0.1 1000 41670 0 0 349.393 400 
184 2 0.32342 0.000883773 0.5 0.1 1000 41670 0 0 349.393 400 
185 2 0.325188 0 0.5 0.1 1000 41670 0 0 349.393 400 
377 2 0.325188 0.00176755 0.5 0.1 1000 41670 0 0 349.393 400 
186 2 0.326955 0.000883773 0.5 0.1 1000 41670 0 0 349.393 400 
187 2 0.328722 0 0.5 0.1 1000 41670 0 0 349.393 400 
188 2 0.33049 0.000883773 0.5 0.1 1000 41670 0 0 349.393 400 
378 2 0.328722 0.00176755 0.5 0.1 1000 41670 0 0 349.393 400 
189 2 0.332257 0 0.5 0.1 1000 41670 0 0 349.393 400 
379 2 0.332257 0.00176755 0.5 0.1 1000 41670 0 0 349.393 400 
190 2 0.334024 0.000883773 0.5 0.1 1000 41670 0 0 349.393 400 
191 2 0.335792 0 0.5 0.1 1000 41670 0 0 349.393 400 
380 2 0.335792 0.00176755 0.5 0.1 1000 41670 0 0 349.393 400 
192 2 0.337559 0.000883773 0.5 0.1 1000 41670 0 0 349.393 400 
193 2 0.339326 0 0.5 0.1 1000 41670 0 0 349.393 400 
194 2 0.341094 0.000883773 0.5 0.1 1000 41670 0 0 349.393 400 
381 2 0.339326 0.00176755 0.5 0.1 1000 41670 0 0 349.393 400 
195 2 0.342861 0 0.5 0.1 1000 41670 0 0 349.393 400 
196 2 0.344628 0.000883773 0.5 0.1 1000 41670 0 0 349.393 400 
382 2 0.342861 0.00176755 0.5 0.1 1000 41670 0 0 349.393 400 
197 2 0.346396 0 0.5 0.1 1000 41670 0 0 349.393 400 
198 2 0.348163 0.000883773 0.5 0.1 1000 41670 0 0 349.393 400 
199 2 0.34993 0 0.5 0.1 1000 41670 0 0 349.393 400 
383 2 0.346396 0.00176755 0.5 0.1 1000 41670 0 0 349.393 400 
384 2 0.34993 0.00176755 0.5 0.1 1000 41670 0 0 349.393 400 
200 2 0.351698 0.000883773 0.5 0.1 1000 41670 0 0 349.393 400 
201 2 0.353465 0 0.5 0.1 1000 41670 0 0 349.393 400 
202 2 0.355232 0.000883773 0.5 0.1 1000 41670 0 0 349.393 400 
385 2 0.353465 0.00176755 0.5 0.1 1000 41670 0 0 349.393 400 
203 2 0.357 0 0.5 0.1 1000 41670 0 0 349.393 400 
204 2 0.358767 0.000883773 0.5 0.1 1000 41670 0 0 349.393 400 
205 2 0.360534 0 0.5 0.1 1000 41670 0 0 349.393 400 
386 2 0.357 0.00176755 0.5 0.1 1000 41670 0 0 349.393 400 
387 2 0.360534 0.00176755 0.5 0.1 1000 41670 0 0 349.393 400 
206 2 0.362302 0.000883773 0.5 0.1 1000 41670 0 0 349.393 400 
207 2 0.364069 0 0.5 0.1 1000 41670 0 0 349.393 400 
208 2 0.365836 0.000883773 0.5 0.1 1000 41670 0 0 349.393 400 
388 2 0.364069 0.00176755 0.5 0.1 1000 41670 0 0 349.393 400 
209 2 0.367604 0 0.5 0.1 1000 41670 0 0 349.393 400 
210 2 0.369371 0.000883773 0.5 0.1 1000 41670 0 0 349.393 400 
389 2 0.367604 0.00176755 0.5 0.1 1000 41670 0 0 349.393 400 
211 2 0.371138 0 0.5 0.1 1000 41670 0 0 349.393 400 
212 2 0.372906 0.000883773 0.5 0.1 1000 41670 0 0 349.393 400 
213 2 0.374673 0 0.5 0.1 1000 41670 0 0 349.393 400 
390 2 0.371138 0.00176755 0.5 0.1 1000 41670 0 0 349.393 400 
391 2 0.374673 0.00176755 0.5 0.1 1000 41670 0 0 349.393 400 
214 2 0.37644 0.000883773 0.5 0.1 1000 41670 0 0 349.393 400 
215 2 0.378208 0 0.5 0.1 1000 41670 0 0 349.393 400 
216 2 0.379975 0.000883773 0.5 0.1 1000 41670 0 0 349.393 400 
392 2 0.378208 0.00176755 0.5 0.1 1000 41670 0 0 349.393 400 
217 2 0.381742 0 0.5 0.1 1000 41670 0 0 349.393 400 
218 2 0.38351 0.000883773 0.5 0.1 1000 41670 0 0 349.393 400 
219 2 0.385277 0 0.5 0.1 1000 41670 0 0 349.393 400 
393 2 0.381742 0.00176755 0.5 0.1 1000 41670 0 0 349.393 400 
394 2 0.385277 0.00176755 0.5 0.1 1000 41670 0 0 349.393 400 
220 2 0.387044 0.000883773 0.5 0.1 1000 41670 0 0 349.393 400 
221 2 0.388812 0 0.5 0.1 1000 41670 0 0 349.393 400 
395 2 0.388812 0.00176755 0.5 0.1 1000 41670 0 0 349.393 400 
222 2 0.390579 0.000883773 0.5 0.1 1000 41670 0 0 349.393 400 
223 2 0.392346 0 0.5 0.1 1000 41670 0 0 349.393 400 
224 2 0.394114 0.000883773 0.5 0.1 1000 41670 0 0 349.393 400 
396 2 0.392346 0.00176755 0.5 0.1 1000 41670 0 0 349.393 400 
225 2 0.395881 0 0.5 0.1 1000 41670 0 0 349.393 400 
226 2 0.397648 0.000883773 0.5 0.1 1000 41670 0 0 349.393 400 
227 2 0.399415 0 0.5 0.1 1000 41670 0 0 349.393 400 
397 2 0.395881 0.00176755 0.5 0.1 1000 41670 0 0 349.393 400 
398 2 0.399415 0.00176755 0.5 0.1 1000 41670 0 0 349.393 400 
228 2 0.401183 0.000883773 0.5 0.1 1000 41670 0 0 349.393 400 
229 2 0.40295 0 0.5 0.1 1000 41670 0 0 349.393 400 
230 2 0.404717 0.000883773 0.5 0.1 1000 41670 0 0 349.393 400 
399 2 0.40295 0.00176755 0.5 0.1 1000 41670 0 0 349.393 400 
231 2 0.406485 0 0.5 0.1 1000 41670 0 0 349.393 400 
232 2 0.408252 0.000883773 0.5 0.1 1000 41670 0 0 349.393 400 
400 2 0.406485 0.00176755 0.5 0.1 1000 41670 0 0 349.393 400 
233 2 0.410019 0 0.5 0.1 1000 41670 0 0 349.393 400 
234 2 0.411787 0.000883773 0.5 0.1 1000 41670 0 0 349.393 400 
235 2 0.413554 0 0.5 0.1 1000 41670 0 0 349.393 400 
401 2 0.410019 0.00176755 0.5 0.1 1000 41670 0 0 349.393 400 
402 2 0.413554 0.00176755 0.5 0.1 1000 41670 0 0 349.393 400 
236 2 0.415321 0.000883773 0.5 0.1 1000 41670 0 0 349.393 400 
237 2 0.417089 0 0.5 0.1 1000 41670 0 0 349.393 400 
238 2 0.418856 0.000883773 0.5 0.1 1000 41670 0 0 349.393 400 
403 2 0.417089 0.00176755 0.5 0.1 1000 41670 0 0 349.393 400 
239 2 0.420623 0 0.5 0.1 1000 41670 0 0 349.393 400 
240 2 0.422391 0.000883773 0.5 0.1 1000 41670 0 0 349.393 400 
241 2 0.424158 0 0.5 0.1 1000 41670 0 0 349.393 400 
404 2 0.420623 0.00176755 0.5 0.1 1000 41670 0 0 349.393 400 
405 2 0.424158 0.00176755 0.5 0.1 1000 41670 0 0 349.393 400 
242 2 0.425925 0.000883773 0.5 0.1 1000 41670 0 0 349.393 400 
243 2 0.427693 0 0.5 0.1 1000 41670 0 0 349.393 400 
406 2 0.427693 0.00176755 0.5 0.1 1000 41670 0 0 349.393 400 
244 2 0.42946 0.000883773 0.5 0.1 1000 41670 0 0 349.393 400 
245 2 0.431227 0 0.5 0.1 1000 41670 0 0 349.393 400 
246 2 0.432995 0.000883773 0.5 0.1 1000 41670 0 0 349.393 400 
407 2 0.431227 0.00176755 0.5 0.1 1000 41670 0 0 349.393 400 
247 2 0.434762 0 0.5 0.1 1000 41670 0 0 349.393 400 
248 2 0.436529 0.000883773 0.5 0.1 1000 41670 0 0 349.393 400 
249 2 0.438297 0 0.5 0.1 1000 41670 0 0 349.393 400 
408 2 0.434762 0.00176755 0.5 0.1 1000 41670 0 0 349.393 400 
409 2 0.438297 0.00176755 0.5 0.1 1000 41670 0 0 349.393 400 
250 2 0.440064 0.000883773 0.5 0.1 1000 41670 0 0 349.393 400 
251 2 0.441831 0 0.5 0.1 1000 41670 0 0 349.393 400 
252 2 0.443599 0.000883773 0.5 0.1 1000 41670 0 0 349.393 400 
410 2 0.441831 0.00176755 0.5 0.1 1000 41670 0 0 349.393 400 
253 2 0.445366 0 0.5 0.1 1000 41670 0 0 349.393 400 
254 2 0.447133 0.000883773 0.5 0.1 1000 41670 0 0 349.393 400 
411 2 0.445366 0.00176755 0.5 0.1 1000 41670 0 0 349.393 400 
255 2 0.448901 0 0.5 0.1 1000 41670 0 0 349.393 400 
256 2 0.450668 0.000883773 0.5 0.1 1000 41670 0 0 349.393 400 
257 2 0.452435 0 0.5 0.1 1000 41670 0 0 349.393 400 
412 2 0.448901 0.00176755 0.5 0.1 1000 41670 0 0 349.393 400 
413 2 0.452435 0.00176755 0.5 0.1 1000 41670 0 0 349.393 400 
258 2 0.454203 0.000883773 0.5 0.1 1000 41670 0 0 349.393 400 
259 2 0.45597 0 0.5 0.1 1000 41670 0 0 349.393 400 
260 2 0.457737 0.000883773 0.5 0.1 1000 41670 0 0 349.393 400 
414 2 0.45597 0.00176755 0.5 0.1 1000 41670 0 0 349.393 400 
261 2 0.459505 0 0.5 0.1 1000 41670 0 0 349.393 400 
262 2 0.461272 0.000883773 0.5 0.1 1000 41670 0 0 349.393 400 
263 2 0.463039 0 0.5 0.1 1000 41670 0 0 349.393 400 
415 2 0.459505 0.00176755 0.5 0.1 1000 41670 0 0 349.393 400 
416 2 0.463039 0.00176755 0.5 0.1 1000 41670 0 0 349.393 400 
264 2 0.464807 0.000883773 0.5 0.1 1000 41670 0 0 349.393 400 
265 2 0.466574 0 0.5 0.1 1000 41670 0 0 349.393 400 
417 2 0.466574 0.00176755 0.5 0.1 1000 41670 0 0 349.393 400 
266 2 0.468341 0.000883773 0.5 0.1 1000 41670 0 0 349.393 400 
267 2 0.470108 0 0.5 0.1 1000 41670 0 0 349.393 400 
268 2 0.471876 0.000883773 0.5 0.1 1000 41670 0 0 349.393 400 
418 2 0.470108 0.00176755 0.5 0.1 1000 41670 0 0 349.393 400 
269 2 0.473643 0 0.5 0.1 1000 41670 0 0 349.393 400 
270 2 0.47541 0.000883773 0.5 0.1 1000 41670 0 0 349.393 400 
271 2 0.477178 0 0.5 0.1 1000 41670 0 0 349.393 400 
419 2 0.473643 0.00176755 0.5 0.1 1000 41670 0 0 349.393 400 
420 2 0.477178 0.00176755 0.5 0.1 1000 41670 0 0 349.393 400 
272 2 0.478945 0.000883773 0.5 0.1 1000 41670 0 0 349.393 400 
273 2 0.480712 0 0.5 0.1 1000 41670 0 0 349.393 400 
274 2 0.48248 0.000883773 0.5 0.1 1000 41670 0 0 349.393 400 
421 2 0.480712 0.00176755 0.5 0.1 1000 41670 0 0 349.393 400 
275 2 0.484247 0 0.5 0.1 1000 41670 0 0 349.393 400 
276 2 0.486014 0.000883773 0.5 0.1 1000 41670 0 0 349.393 400 
277 2 0.487782 0 0.5 0.1 1000 41670 0 0 349.393 400 
422 2 0.484247 0.00176755 0.5 0.1 1000 41670 0 0 349.393 400 
423 2 0.487782 0.00176755 0.5 0.1 1000 41670 0 0 349.393 400 
278 2 0.489549 0.000883773 0.5 0.1 1000 41670 0 0 349.393 400 
279 2 0.491316 0 0.5 0.1 1000 41670 0 0 349.393 400 
424 2 0.491316 0.00176755 0.5 0.1 1000 41670 0 0 349.393 400 
280 2 0.493084 0.000883773 0.5 0.1 1000 41670 0 0 349.393 400 
281 2 0.494851 0 0.5 0.1 1000 41670 0 0 349.393 400 
282 2 0.496618 0.000883773 0.5 0.1 1000 41670 0 0 349.393 400 
425 2 0.494851 0.00176755 0.5 0.1 1000 41670 0 0 349.393 400 
283 2 0.498386 0 0.5 0.1 1000 41670 0 0 349.393 400 
426 2 0.498386 0.00176755 0.5 0.1 1000 41670 0 0 349.393 400 
2539 2 0.500153 0.000883773 0.5 0.1 1000 41670 0 0 349.393 400 
2540 2 0.50192 0 0.5 0.1 1000 41670 0 0 349.393 400 
2822 2 0.50192 0.00176755 0.5 0.1 1000 41670 0 0 349.393 400 
5077 2 0.50192 0 0.5 0.1 1000 41670 0 0 349.393 400 
2541 2 0.503688 0.000883773 0.5 0.1 1000 41670 0 0 349.393 400 
2542 2 0.505455 0 0.5 0.1 1000 41670 0 0 349.393 400 
2543 2 0.507222 0.000883773 0.5 0.1 1000 41670 0 0 349.393 400 
2823 2 0.505455 0.00176755 0.5 0.1 1000 41670 0 0 349.393 400 
5078 2 0.503688 0.000883773 0.5 0.1 1000 41670 0 0 349.393 400 
5079 2 0.505455 0 0.5 0.1 1000 41670 0 0 349.393 400 
5080 2 0.507222 0.000883773 0.5 0.1 1000 41670 0 0 349.393 400 
5119 2 0.505455 0.00176755 0.5 0.1 1000 41670 0 0 349.393 400 
2544 2 0.50899 0 0.5 0.1 1000 41670 0 0 349.393 400 
2545 2 0.510757 0.000883773 0.5 0.1 1000 41670 0 0 349.393 400 
2824 2 0.50899 0.00176755 0.5 0.1 1000 41670 0 0 349.393 400 
5081 2 0.50899 0 0.5 0.1 1000 41670 0 0 349.393 400 
5082 2 0.510757 0.000883773 0.5 0.1 1000 41670 0 0 349.393 400 
5121 2 0.50899 0.00176755 0.5 0.1 1000 41670 0 0 349.393 400 
2546 2 0.512524 0 0.5 0.1 1000 41670 0 0 349.393 400 
2547 2 0.514292 0.000883773 0.5 0.1 1000 41670 0 0 349.393 400 
2548 2 0.516059 0 0.5 0.1 1000 41670 0 0 349.393 400 
2825 2 0.512524 0.00176755 0.5 0.1 1000 41670 0 0 349.393 400 
2826 2 0.516059 0.00176755 0.5 0.1 1000 41670 0 0 349.393 400 
5083 2 0.512524 0 0.5 0.1 1000 41670 0 0 349.393 400 
5084 2 0.514292 0.000883773 0.5 0.1 1000 41670 0 0 349.393 400 
5085 2 0.516059 0 0.5 0.1 1000 41670 0 0 349.393 400 
5123 2 0.512524 0.00176755 0.5 0.1 1000 41670 0 0 349.393 400 
5125 2 0.516059 0.00176755 0.5 0.1 1000 41670 0 0 349.393 400 
2549 2 0.517826 0.000883773 0.5 0.1 1000 41670 0 0 349.393 400 
2550 2 0.519594 0 0.5 0.1 1000 41670 0 0 349.393 400 
2551 2 0.521361 0.000883773 0.5 0.1 1000 41670 0 0 349.393 400 
2827 2 0.519594 0.00176755 0.5 0.1 1000 41670 0 0 349.393 400 
5086 2 0.517826 0.000883773 0.5 0.1 1000 41670 0 0 349.393 400 
5087 2 0.519594 0 0.5 0.1 1000 41670 0 0 349.393 400 
5088 2 0.521361 0.000883773 0.5 0.1 1000 41670 0 0 349.393 400 
5127 2 0.519594 0.00176755 0.5 0.1 1000 41670 0 0 349.393 400 
2552 2 0.523128 0 0.5 0.1 1000 41670 0 0 349.393 400 
2553 2 0.524896 0.000883773 0.5 0.1 1000 41670 0 0 349.393 400 
2554 2 0.526663 0 0.5 0.1 1000 41670 0 0 349.393 400 
2828 2 0.523128 0.00176755 0.5 0.1 1000 41670 0 0 349.393 400 
2829 2 0.526663 0.00176755 0.5 0.1 1000 41670 0 0 349.393 400 
5089 2 0.523128 0 0.5 0.1 1000 41670 0 0 349.393 400 
5090 2 0.524896 0.000883773 0.5 0.1 1000 41670 0 0 349.393 400 
5091 2 0.526663 0 0.5 0.1 1000 41670 0 0 349.393 400 
5129 2 0.523128 0.00176755 0.5 0.1 1000 41670 0 0 349.393 400 
5131 2 0.526663 0.00176755 0.5 0.1 1000 41670 0 0 349.393 400 